
.Version 7.10.5 of ABINIT 
.(MPI version, prepared for a x86_64_linux_intel16.0 computer) 

.Copyright (C) 1998-2014 ABINIT group . 
 ABINIT comes with ABSOLUTELY NO WARRANTY.
 It is free software, and you are welcome to redistribute it
 under certain conditions (GNU General Public License,
 see ~abinit/COPYING or http://www.gnu.org/copyleft/gpl.txt).

 ABINIT is a project of the Universite Catholique de Louvain,
 Corning Inc. and other collaborators, see ~abinit/doc/developers/contributors.txt .
 Please read ~abinit/doc/users/acknowledgments.html for suggested
 acknowledgments of the ABINIT effort.
 For more information, see http://www.abinit.org .

.Starting date : Fri  5 Aug 2016.
- ( at 10h46 )
  
- input  file    -> si.in
- output file    -> si.out
- root for input  files -> sii
- root for output files -> sio
 
